                                                                
version 2
run accident-0-20150413-19:10:10-7535
attr configname accident
attr datetime 20150413-19:10:10
attr experiment accident
attr inifile omnetpp.ini
attr iterationvars ""
attr iterationvars2 $repetition=0
attr measurement ""
attr network inet.examples.Examples_Inet299.traci_launchd2M.scenario2M
attr processid 7535
attr repetition 0
attr replication #0
attr resultdir results
attr runnumber 0
attr seedset 0

vector 12  scenario2M.host[0].wlan.mgmt  dataQueueLen:vector  ETV
attr interpolationmode  sample-hold
attr title  "data queue length, vector"
vector 18  scenario2M.host[0].wlan.radio  radioMode:vector  ETV
attr interpolationmode  sample-hold
attr source  radioModeChanged
attr title  "Radio mode, vector"
vector 21  scenario2M.host[0].wlan.radio  radioChannel:vector  ETV
attr interpolationmode  sample-hold
attr source  radioChannelChanged
attr title  "Radio channel, vector"
vector 19  scenario2M.host[0].wlan.radio  receptionState:vector  ETV
attr interpolationmode  sample-hold
attr source  receptionStateChanged
attr title  "Radio reception state, vector"
vector 27  scenario2M.host[0].wlan.mac  State  ETV
attr enum  "BACKOFF=3, DEFER=1, IDLE=0, RECEIVE=8, WAITACK=4, WAITAIFS=2, WAITCTS=6, WAITMULTICAST=5, WAITSIFS=7"
attr enumname  inet::Ieee80211Mac
vector 29  scenario2M.host[0].wlan.mac  "throughput AC0"  ETV
vector 43  scenario2M.host[1].wlan.mgmt  dataQueueLen:vector  ETV
attr interpolationmode  sample-hold
attr title  "data queue length, vector"
vector 49  scenario2M.host[1].wlan.radio  radioMode:vector  ETV
attr interpolationmode  sample-hold
attr source  radioModeChanged
attr title  "Radio mode, vector"
vector 52  scenario2M.host[1].wlan.radio  radioChannel:vector  ETV
attr interpolationmode  sample-hold
attr source  radioChannelChanged
attr title  "Radio channel, vector"
vector 50  scenario2M.host[1].wlan.radio  receptionState:vector  ETV
attr interpolationmode  sample-hold
attr source  receptionStateChanged
attr title  "Radio reception state, vector"
vector 58  scenario2M.host[1].wlan.mac  State  ETV
attr enum  "BACKOFF=3, DEFER=1, IDLE=0, RECEIVE=8, WAITACK=4, WAITAIFS=2, WAITCTS=6, WAITMULTICAST=5, WAITSIFS=7"
attr enumname  inet::Ieee80211Mac
vector 60  scenario2M.host[1].wlan.mac  "throughput AC0"  ETV
vector 74  scenario2M.host[2].wlan.mgmt  dataQueueLen:vector  ETV
attr interpolationmode  sample-hold
attr title  "data queue length, vector"
vector 80  scenario2M.host[2].wlan.radio  radioMode:vector  ETV
attr interpolationmode  sample-hold
attr source  radioModeChanged
attr title  "Radio mode, vector"
vector 83  scenario2M.host[2].wlan.radio  radioChannel:vector  ETV
attr interpolationmode  sample-hold
attr source  radioChannelChanged
attr title  "Radio channel, vector"
vector 81  scenario2M.host[2].wlan.radio  receptionState:vector  ETV
attr interpolationmode  sample-hold
attr source  receptionStateChanged
attr title  "Radio reception state, vector"
vector 89  scenario2M.host[2].wlan.mac  State  ETV
attr enum  "BACKOFF=3, DEFER=1, IDLE=0, RECEIVE=8, WAITACK=4, WAITAIFS=2, WAITCTS=6, WAITMULTICAST=5, WAITSIFS=7"
attr enumname  inet::Ieee80211Mac
vector 91  scenario2M.host[2].wlan.mac  "throughput AC0"  ETV
vector 31  scenario2M.host[1].app  sentPk:vector(packetBytes)  ETV
attr interpolationmode  none
attr source  sentPk
attr title  "packets sent, vector(packetBytes)"
vector 62  scenario2M.host[2].app  sentPk:vector(packetBytes)  ETV
attr interpolationmode  none
attr source  sentPk
attr title  "packets sent, vector(packetBytes)"
vector 36  scenario2M.host[1].udp  sentPk:vector(packetBytes)  ETV
attr interpolationmode  none
attr source  sentPk
attr title  "packets sent, vector(packetBytes)"
vector 67  scenario2M.host[2].udp  sentPk:vector(packetBytes)  ETV
attr interpolationmode  none
attr source  sentPk
attr title  "packets sent, vector(packetBytes)"
vector 47  scenario2M.host[1].wlan.mac  rcvdPkFromHL:vector(packetBytes)  ETV
attr interpolationmode  none
attr source  packetReceivedFromUpper
attr title  "packets received from higher layer, vector(packetBytes)"
vector 46  scenario2M.host[1].wlan.mac  sentDownPk:vector(packetBytes)  ETV
attr interpolationmode  none
attr source  packetSentToLower
attr title  "packets sent to lower layer, vector(packetBytes)"
vector 51  scenario2M.host[1].wlan.radio  transmissionState:vector  ETV
attr interpolationmode  sample-hold
attr source  transmissionStateChanged
attr title  "Radio transmission state, vector"
vector 78  scenario2M.host[2].wlan.mac  rcvdPkFromHL:vector(packetBytes)  ETV
attr interpolationmode  none
attr source  packetReceivedFromUpper
attr title  "packets received from higher layer, vector(packetBytes)"
vector 77  scenario2M.host[2].wlan.mac  sentDownPk:vector(packetBytes)  ETV
attr interpolationmode  none
attr source  packetSentToLower
attr title  "packets sent to lower layer, vector(packetBytes)"
vector 82  scenario2M.host[2].wlan.radio  transmissionState:vector  ETV
attr interpolationmode  sample-hold
attr source  transmissionStateChanged
attr title  "Radio transmission state, vector"
vector 105  scenario2M.host[3].wlan.mgmt  dataQueueLen:vector  ETV
attr interpolationmode  sample-hold
attr title  "data queue length, vector"
vector 111  scenario2M.host[3].wlan.radio  radioMode:vector  ETV
attr interpolationmode  sample-hold
attr source  radioModeChanged
attr title  "Radio mode, vector"
vector 114  scenario2M.host[3].wlan.radio  radioChannel:vector  ETV
attr interpolationmode  sample-hold
attr source  radioChannelChanged
attr title  "Radio channel, vector"
vector 112  scenario2M.host[3].wlan.radio  receptionState:vector  ETV
attr interpolationmode  sample-hold
attr source  receptionStateChanged
attr title  "Radio reception state, vector"
vector 120  scenario2M.host[3].wlan.mac  State  ETV
attr enum  "BACKOFF=3, DEFER=1, IDLE=0, RECEIVE=8, WAITACK=4, WAITAIFS=2, WAITCTS=6, WAITMULTICAST=5, WAITSIFS=7"
attr enumname  inet::Ieee80211Mac
vector 122  scenario2M.host[3].wlan.mac  "throughput AC0"  ETV
vector 22  scenario2M.host[0].mobility  posx  ETV
vector 23  scenario2M.host[0].mobility  posy  ETV
vector 24  scenario2M.host[0].mobility  speed  ETV
vector 53  scenario2M.host[1].mobility  posx  ETV
vector 54  scenario2M.host[1].mobility  posy  ETV
vector 55  scenario2M.host[1].mobility  speed  ETV
vector 84  scenario2M.host[2].mobility  posx  ETV
vector 85  scenario2M.host[2].mobility  posy  ETV
vector 86  scenario2M.host[2].mobility  speed  ETV
vector 93  scenario2M.host[3].app  sentPk:vector(packetBytes)  ETV
attr interpolationmode  none
attr source  sentPk
attr title  "packets sent, vector(packetBytes)"
vector 98  scenario2M.host[3].udp  sentPk:vector(packetBytes)  ETV
attr interpolationmode  none
attr source  sentPk
attr title  "packets sent, vector(packetBytes)"
vector 109  scenario2M.host[3].wlan.mac  rcvdPkFromHL:vector(packetBytes)  ETV
attr interpolationmode  none
attr source  packetReceivedFromUpper
attr title  "packets received from higher layer, vector(packetBytes)"
vector 108  scenario2M.host[3].wlan.mac  sentDownPk:vector(packetBytes)  ETV
attr interpolationmode  none
attr source  packetSentToLower
attr title  "packets sent to lower layer, vector(packetBytes)"
vector 113  scenario2M.host[3].wlan.radio  transmissionState:vector  ETV
attr interpolationmode  sample-hold
attr source  transmissionStateChanged
attr title  "Radio transmission state, vector"
vector 48  scenario2M.host[1].wlan.mac  rcvdPkFromLL:vector(packetBytes)  ETV
attr interpolationmode  none
attr source  packetReceivedFromLower
attr title  "packets received from lower layer, vector(packetBytes)"
vector 45  scenario2M.host[1].wlan.mac  passedUpPk:vector(packetBytes)  ETV
attr interpolationmode  none
attr source  packetSentToUpper
attr title  "packets passed to higher layer, vector(packetBytes)"
vector 110  scenario2M.host[3].wlan.mac  rcvdPkFromLL:vector(packetBytes)  ETV
attr interpolationmode  none
attr source  packetReceivedFromLower
attr title  "packets received from lower layer, vector(packetBytes)"
vector 107  scenario2M.host[3].wlan.mac  passedUpPk:vector(packetBytes)  ETV
attr interpolationmode  none
attr source  packetSentToUpper
attr title  "packets passed to higher layer, vector(packetBytes)"
vector 136  scenario2M.host[4].wlan.mgmt  dataQueueLen:vector  ETV
attr interpolationmode  sample-hold
attr title  "data queue length, vector"
vector 142  scenario2M.host[4].wlan.radio  radioMode:vector  ETV
attr interpolationmode  sample-hold
attr source  radioModeChanged
attr title  "Radio mode, vector"
vector 145  scenario2M.host[4].wlan.radio  radioChannel:vector  ETV
attr interpolationmode  sample-hold
attr source  radioChannelChanged
attr title  "Radio channel, vector"
vector 143  scenario2M.host[4].wlan.radio  receptionState:vector  ETV
attr interpolationmode  sample-hold
attr source  receptionStateChanged
attr title  "Radio reception state, vector"
vector 151  scenario2M.host[4].wlan.mac  State  ETV
attr enum  "BACKOFF=3, DEFER=1, IDLE=0, RECEIVE=8, WAITACK=4, WAITAIFS=2, WAITCTS=6, WAITMULTICAST=5, WAITSIFS=7"
attr enumname  inet::Ieee80211Mac
vector 153  scenario2M.host[4].wlan.mac  "throughput AC0"  ETV
vector 25  scenario2M.host[0].mobility  acceleration  ETV
vector 26  scenario2M.host[0].mobility  co2emission  ETV
vector 56  scenario2M.host[1].mobility  acceleration  ETV
vector 57  scenario2M.host[1].mobility  co2emission  ETV
vector 87  scenario2M.host[2].mobility  acceleration  ETV
vector 88  scenario2M.host[2].mobility  co2emission  ETV
vector 115  scenario2M.host[3].mobility  posx  ETV
vector 116  scenario2M.host[3].mobility  posy  ETV
vector 117  scenario2M.host[3].mobility  speed  ETV
vector 124  scenario2M.host[4].app  sentPk:vector(packetBytes)  ETV
attr interpolationmode  none
attr source  sentPk
attr title  "packets sent, vector(packetBytes)"
vector 129  scenario2M.host[4].udp  sentPk:vector(packetBytes)  ETV
attr interpolationmode  none
attr source  sentPk
attr title  "packets sent, vector(packetBytes)"
vector 140  scenario2M.host[4].wlan.mac  rcvdPkFromHL:vector(packetBytes)  ETV
attr interpolationmode  none
attr source  packetReceivedFromUpper
attr title  "packets received from higher layer, vector(packetBytes)"
vector 139  scenario2M.host[4].wlan.mac  sentDownPk:vector(packetBytes)  ETV
attr interpolationmode  none
attr source  packetSentToLower
attr title  "packets sent to lower layer, vector(packetBytes)"
vector 144  scenario2M.host[4].wlan.radio  transmissionState:vector  ETV
attr interpolationmode  sample-hold
attr source  transmissionStateChanged
attr title  "Radio transmission state, vector"
vector 103  scenario2M.host[3].networkLayer.arp  sentReq:vector  ETV
attr title  "ARP request sent, vector"
vector 41  scenario2M.host[1].networkLayer.arp  sentReq:vector  ETV
attr title  "ARP request sent, vector"
vector 141  scenario2M.host[4].wlan.mac  rcvdPkFromLL:vector(packetBytes)  ETV
attr interpolationmode  none
attr source  packetReceivedFromLower
attr title  "packets received from lower layer, vector(packetBytes)"
vector 138  scenario2M.host[4].wlan.mac  passedUpPk:vector(packetBytes)  ETV
attr interpolationmode  none
attr source  packetSentToUpper
attr title  "packets passed to higher layer, vector(packetBytes)"
vector 134  scenario2M.host[4].networkLayer.arp  sentReq:vector  ETV
attr title  "ARP request sent, vector"
vector 104  scenario2M.host[3].networkLayer.arp  sentReply:vector  ETV
attr title  "ARP replies sent, vector"
vector 61  scenario2M.host[1].wlan.mac  "Mac delay AC0"  ETV
vector 123  scenario2M.host[3].wlan.mac  "Mac delay AC0"  ETV
vector 99  scenario2M.host[3].udp  rcvdPk:vector(packetBytes)  ETV
attr interpolationmode  none
attr source  rcvdPk
attr title  "packets received, vector(packetBytes)"
vector 100  scenario2M.host[3].udp  passedUpPk:vector(count)  ETV
attr interpolationmode  none
attr title  "packets passed up, vector(count)"
vector 94  scenario2M.host[3].app  rcvdPk:vector(packetBytes)  ETV
attr interpolationmode  none
attr source  rcvdPk
attr title  "packets received, vector(packetBytes)"
vector 97  scenario2M.host[3].app  endToEndDelay:vector  ETV
attr interpolationmode  none
attr source  messageAge(rcvdPk)
attr title  "delay, vector"
attr unit  s
vector 154  scenario2M.host[4].wlan.mac  "Mac delay AC0"  ETV
vector 121  scenario2M.host[3].wlan.mac  "jitter AC0"  ETV
vector 59  scenario2M.host[1].wlan.mac  "jitter AC0"  ETV
vector 152  scenario2M.host[4].wlan.mac  "jitter AC0"  ETV
vector 167  scenario2M.host[5].wlan.mgmt  dataQueueLen:vector  ETV
attr interpolationmode  sample-hold
attr title  "data queue length, vector"
vector 173  scenario2M.host[5].wlan.radio  radioMode:vector  ETV
attr interpolationmode  sample-hold
attr source  radioModeChanged
attr title  "Radio mode, vector"
vector 176  scenario2M.host[5].wlan.radio  radioChannel:vector  ETV
attr interpolationmode  sample-hold
attr source  radioChannelChanged
attr title  "Radio channel, vector"
vector 174  scenario2M.host[5].wlan.radio  receptionState:vector  ETV
attr interpolationmode  sample-hold
attr source  receptionStateChanged
attr title  "Radio reception state, vector"
vector 182  scenario2M.host[5].wlan.mac  State  ETV
attr enum  "BACKOFF=3, DEFER=1, IDLE=0, RECEIVE=8, WAITACK=4, WAITAIFS=2, WAITCTS=6, WAITMULTICAST=5, WAITSIFS=7"
attr enumname  inet::Ieee80211Mac
vector 184  scenario2M.host[5].wlan.mac  "throughput AC0"  ETV
vector 118  scenario2M.host[3].mobility  acceleration  ETV
vector 119  scenario2M.host[3].mobility  co2emission  ETV
vector 146  scenario2M.host[4].mobility  posx  ETV
vector 147  scenario2M.host[4].mobility  posy  ETV
vector 148  scenario2M.host[4].mobility  speed  ETV
vector 155  scenario2M.host[5].app  sentPk:vector(packetBytes)  ETV
attr interpolationmode  none
attr source  sentPk
attr title  "packets sent, vector(packetBytes)"
vector 160  scenario2M.host[5].udp  sentPk:vector(packetBytes)  ETV
attr interpolationmode  none
attr source  sentPk
attr title  "packets sent, vector(packetBytes)"
vector 171  scenario2M.host[5].wlan.mac  rcvdPkFromHL:vector(packetBytes)  ETV
attr interpolationmode  none
attr source  packetReceivedFromUpper
attr title  "packets received from higher layer, vector(packetBytes)"
vector 170  scenario2M.host[5].wlan.mac  sentDownPk:vector(packetBytes)  ETV
attr interpolationmode  none
attr source  packetSentToLower
attr title  "packets sent to lower layer, vector(packetBytes)"
vector 175  scenario2M.host[5].wlan.radio  transmissionState:vector  ETV
attr interpolationmode  sample-hold
attr source  transmissionStateChanged
attr title  "Radio transmission state, vector"
vector 17  scenario2M.host[0].wlan.mac  rcvdPkFromLL:vector(packetBytes)  ETV
attr interpolationmode  none
attr source  packetReceivedFromLower
attr title  "packets received from lower layer, vector(packetBytes)"
vector 14  scenario2M.host[0].wlan.mac  passedUpPk:vector(packetBytes)  ETV
attr interpolationmode  none
attr source  packetSentToUpper
attr title  "packets passed to higher layer, vector(packetBytes)"
vector 172  scenario2M.host[5].wlan.mac  rcvdPkFromLL:vector(packetBytes)  ETV
attr interpolationmode  none
attr source  packetReceivedFromLower
attr title  "packets received from lower layer, vector(packetBytes)"
vector 16  scenario2M.host[0].wlan.mac  rcvdPkFromHL:vector(packetBytes)  ETV
attr interpolationmode  none
attr source  packetReceivedFromUpper
attr title  "packets received from higher layer, vector(packetBytes)"
vector 15  scenario2M.host[0].wlan.mac  sentDownPk:vector(packetBytes)  ETV
attr interpolationmode  none
attr source  packetSentToLower
attr title  "packets sent to lower layer, vector(packetBytes)"
vector 20  scenario2M.host[0].wlan.radio  transmissionState:vector  ETV
attr interpolationmode  sample-hold
attr source  transmissionStateChanged
attr title  "Radio transmission state, vector"
vector 169  scenario2M.host[5].wlan.mac  passedUpPk:vector(packetBytes)  ETV
attr interpolationmode  none
attr source  packetSentToUpper
attr title  "packets passed to higher layer, vector(packetBytes)"
vector 10  scenario2M.host[0].networkLayer.arp  sentReq:vector  ETV
attr title  "ARP request sent, vector"
vector 165  scenario2M.host[5].networkLayer.arp  sentReq:vector  ETV
attr title  "ARP request sent, vector"
vector 42  scenario2M.host[1].networkLayer.arp  sentReply:vector  ETV
attr title  "ARP replies sent, vector"
vector 37  scenario2M.host[1].udp  rcvdPk:vector(packetBytes)  ETV
attr interpolationmode  none
attr source  rcvdPk
attr title  "packets received, vector(packetBytes)"
vector 38  scenario2M.host[1].udp  passedUpPk:vector(count)  ETV
attr interpolationmode  none
attr title  "packets passed up, vector(count)"
vector 32  scenario2M.host[1].app  rcvdPk:vector(packetBytes)  ETV
attr interpolationmode  none
attr source  rcvdPk
attr title  "packets received, vector(packetBytes)"
vector 35  scenario2M.host[1].app  endToEndDelay:vector  ETV
attr interpolationmode  none
attr source  messageAge(rcvdPk)
attr title  "delay, vector"
attr unit  s
vector 185  scenario2M.host[5].wlan.mac  "Mac delay AC0"  ETV
vector 198  scenario2M.host[6].wlan.mgmt  dataQueueLen:vector  ETV
attr interpolationmode  sample-hold
attr title  "data queue length, vector"
vector 204  scenario2M.host[6].wlan.radio  radioMode:vector  ETV
attr interpolationmode  sample-hold
attr source  radioModeChanged
attr title  "Radio mode, vector"
vector 207  scenario2M.host[6].wlan.radio  radioChannel:vector  ETV
attr interpolationmode  sample-hold
attr source  radioChannelChanged
attr title  "Radio channel, vector"
vector 205  scenario2M.host[6].wlan.radio  receptionState:vector  ETV
attr interpolationmode  sample-hold
attr source  receptionStateChanged
attr title  "Radio reception state, vector"
vector 213  scenario2M.host[6].wlan.mac  State  ETV
attr enum  "BACKOFF=3, DEFER=1, IDLE=0, RECEIVE=8, WAITACK=4, WAITAIFS=2, WAITCTS=6, WAITMULTICAST=5, WAITSIFS=7"
attr enumname  inet::Ieee80211Mac
vector 215  scenario2M.host[6].wlan.mac  "throughput AC0"  ETV
vector 149  scenario2M.host[4].mobility  acceleration  ETV
vector 150  scenario2M.host[4].mobility  co2emission  ETV
vector 177  scenario2M.host[5].mobility  posx  ETV
vector 178  scenario2M.host[5].mobility  posy  ETV
vector 179  scenario2M.host[5].mobility  speed  ETV
vector 186  scenario2M.host[6].app  sentPk:vector(packetBytes)  ETV
attr interpolationmode  none
attr source  sentPk
attr title  "packets sent, vector(packetBytes)"
vector 191  scenario2M.host[6].udp  sentPk:vector(packetBytes)  ETV
attr interpolationmode  none
attr source  sentPk
attr title  "packets sent, vector(packetBytes)"
vector 202  scenario2M.host[6].wlan.mac  rcvdPkFromHL:vector(packetBytes)  ETV
attr interpolationmode  none
attr source  packetReceivedFromUpper
attr title  "packets received from higher layer, vector(packetBytes)"
vector 201  scenario2M.host[6].wlan.mac  sentDownPk:vector(packetBytes)  ETV
attr interpolationmode  none
attr source  packetSentToLower
attr title  "packets sent to lower layer, vector(packetBytes)"
vector 206  scenario2M.host[6].wlan.radio  transmissionState:vector  ETV
attr interpolationmode  sample-hold
attr source  transmissionStateChanged
attr title  "Radio transmission state, vector"
vector 79  scenario2M.host[2].wlan.mac  rcvdPkFromLL:vector(packetBytes)  ETV
attr interpolationmode  none
attr source  packetReceivedFromLower
attr title  "packets received from lower layer, vector(packetBytes)"
vector 76  scenario2M.host[2].wlan.mac  passedUpPk:vector(packetBytes)  ETV
attr interpolationmode  none
attr source  packetSentToUpper
attr title  "packets passed to higher layer, vector(packetBytes)"
vector 72  scenario2M.host[2].networkLayer.arp  sentReq:vector  ETV
attr title  "ARP request sent, vector"
vector 203  scenario2M.host[6].wlan.mac  rcvdPkFromLL:vector(packetBytes)  ETV
attr interpolationmode  none
attr source  packetReceivedFromLower
attr title  "packets received from lower layer, vector(packetBytes)"
vector 200  scenario2M.host[6].wlan.mac  passedUpPk:vector(packetBytes)  ETV
attr interpolationmode  none
attr source  packetSentToUpper
attr title  "packets passed to higher layer, vector(packetBytes)"
vector 197  scenario2M.host[6].networkLayer.arp  sentReply:vector  ETV
attr title  "ARP replies sent, vector"
vector 216  scenario2M.host[6].wlan.mac  "Mac delay AC0"  ETV
vector 92  scenario2M.host[2].wlan.mac  "Mac delay AC0"  ETV
vector 68  scenario2M.host[2].udp  rcvdPk:vector(packetBytes)  ETV
attr interpolationmode  none
attr source  rcvdPk
attr title  "packets received, vector(packetBytes)"
vector 69  scenario2M.host[2].udp  passedUpPk:vector(count)  ETV
attr interpolationmode  none
attr title  "packets passed up, vector(count)"
vector 63  scenario2M.host[2].app  rcvdPk:vector(packetBytes)  ETV
attr interpolationmode  none
attr source  rcvdPk
attr title  "packets received, vector(packetBytes)"
vector 66  scenario2M.host[2].app  endToEndDelay:vector  ETV
attr interpolationmode  none
attr source  messageAge(rcvdPk)
attr title  "delay, vector"
attr unit  s
vector 183  scenario2M.host[5].wlan.mac  "jitter AC0"  ETV
vector 229  scenario2M.host[7].wlan.mgmt  dataQueueLen:vector  ETV
attr interpolationmode  sample-hold
attr title  "data queue length, vector"
vector 235  scenario2M.host[7].wlan.radio  radioMode:vector  ETV
attr interpolationmode  sample-hold
attr source  radioModeChanged
attr title  "Radio mode, vector"
vector 238  scenario2M.host[7].wlan.radio  radioChannel:vector  ETV
attr interpolationmode  sample-hold
attr source  radioChannelChanged
attr title  "Radio channel, vector"
vector 236  scenario2M.host[7].wlan.radio  receptionState:vector  ETV
attr interpolationmode  sample-hold
attr source  receptionStateChanged
attr title  "Radio reception state, vector"
vector 244  scenario2M.host[7].wlan.mac  State  ETV
attr enum  "BACKOFF=3, DEFER=1, IDLE=0, RECEIVE=8, WAITACK=4, WAITAIFS=2, WAITCTS=6, WAITMULTICAST=5, WAITSIFS=7"
attr enumname  inet::Ieee80211Mac
vector 246  scenario2M.host[7].wlan.mac  "throughput AC0"  ETV
vector 180  scenario2M.host[5].mobility  acceleration  ETV
vector 181  scenario2M.host[5].mobility  co2emission  ETV
vector 208  scenario2M.host[6].mobility  posx  ETV
vector 209  scenario2M.host[6].mobility  posy  ETV
vector 210  scenario2M.host[6].mobility  speed  ETV
vector 217  scenario2M.host[7].app  sentPk:vector(packetBytes)  ETV
attr interpolationmode  none
attr source  sentPk
attr title  "packets sent, vector(packetBytes)"
vector 222  scenario2M.host[7].udp  sentPk:vector(packetBytes)  ETV
attr interpolationmode  none
attr source  sentPk
attr title  "packets sent, vector(packetBytes)"
vector 233  scenario2M.host[7].wlan.mac  rcvdPkFromHL:vector(packetBytes)  ETV
attr interpolationmode  none
attr source  packetReceivedFromUpper
attr title  "packets received from higher layer, vector(packetBytes)"
vector 232  scenario2M.host[7].wlan.mac  sentDownPk:vector(packetBytes)  ETV
attr interpolationmode  none
attr source  packetSentToLower
attr title  "packets sent to lower layer, vector(packetBytes)"
vector 237  scenario2M.host[7].wlan.radio  transmissionState:vector  ETV
attr interpolationmode  sample-hold
attr source  transmissionStateChanged
attr title  "Radio transmission state, vector"
vector 234  scenario2M.host[7].wlan.mac  rcvdPkFromLL:vector(packetBytes)  ETV
attr interpolationmode  none
attr source  packetReceivedFromLower
attr title  "packets received from lower layer, vector(packetBytes)"
vector 231  scenario2M.host[7].wlan.mac  passedUpPk:vector(packetBytes)  ETV
attr interpolationmode  none
attr source  packetSentToUpper
attr title  "packets passed to higher layer, vector(packetBytes)"
vector 228  scenario2M.host[7].networkLayer.arp  sentReply:vector  ETV
attr title  "ARP replies sent, vector"
vector 247  scenario2M.host[7].wlan.mac  "Mac delay AC0"  ETV
vector 30  scenario2M.host[0].wlan.mac  "Mac delay AC0"  ETV
vector 214  scenario2M.host[6].wlan.mac  "jitter AC0"  ETV
vector 90  scenario2M.host[2].wlan.mac  "jitter AC0"  ETV
vector 28  scenario2M.host[0].wlan.mac  "jitter AC0"  ETV
vector 11  scenario2M.host[0].networkLayer.arp  sentReply:vector  ETV
attr title  "ARP replies sent, vector"
vector 245  scenario2M.host[7].wlan.mac  "jitter AC0"  ETV
vector 6  scenario2M.host[0].udp  rcvdPk:vector(packetBytes)  ETV
attr interpolationmode  none
attr source  rcvdPk
attr title  "packets received, vector(packetBytes)"
vector 7  scenario2M.host[0].udp  passedUpPk:vector(count)  ETV
attr interpolationmode  none
attr title  "packets passed up, vector(count)"
vector 1  scenario2M.host[0].app  rcvdPk:vector(packetBytes)  ETV
attr interpolationmode  none
attr source  rcvdPk
attr title  "packets received, vector(packetBytes)"
vector 4  scenario2M.host[0].app  endToEndDelay:vector  ETV
attr interpolationmode  none
attr source  messageAge(rcvdPk)
attr title  "delay, vector"
attr unit  s
vector 260  scenario2M.host[8].wlan.mgmt  dataQueueLen:vector  ETV
attr interpolationmode  sample-hold
attr title  "data queue length, vector"
vector 266  scenario2M.host[8].wlan.radio  radioMode:vector  ETV
attr interpolationmode  sample-hold
attr source  radioModeChanged
attr title  "Radio mode, vector"
vector 269  scenario2M.host[8].wlan.radio  radioChannel:vector  ETV
attr interpolationmode  sample-hold
attr source  radioChannelChanged
attr title  "Radio channel, vector"
vector 267  scenario2M.host[8].wlan.radio  receptionState:vector  ETV
attr interpolationmode  sample-hold
attr source  receptionStateChanged
attr title  "Radio reception state, vector"
vector 275  scenario2M.host[8].wlan.mac  State  ETV
attr enum  "BACKOFF=3, DEFER=1, IDLE=0, RECEIVE=8, WAITACK=4, WAITAIFS=2, WAITCTS=6, WAITMULTICAST=5, WAITSIFS=7"
attr enumname  inet::Ieee80211Mac
vector 277  scenario2M.host[8].wlan.mac  "throughput AC0"  ETV
vector 211  scenario2M.host[6].mobility  acceleration  ETV
vector 212  scenario2M.host[6].mobility  co2emission  ETV
vector 239  scenario2M.host[7].mobility  posx  ETV
vector 240  scenario2M.host[7].mobility  posy  ETV
vector 241  scenario2M.host[7].mobility  speed  ETV
vector 248  scenario2M.host[8].app  sentPk:vector(packetBytes)  ETV
attr interpolationmode  none
attr source  sentPk
attr title  "packets sent, vector(packetBytes)"
vector 253  scenario2M.host[8].udp  sentPk:vector(packetBytes)  ETV
attr interpolationmode  none
attr source  sentPk
attr title  "packets sent, vector(packetBytes)"
vector 264  scenario2M.host[8].wlan.mac  rcvdPkFromHL:vector(packetBytes)  ETV
attr interpolationmode  none
attr source  packetReceivedFromUpper
attr title  "packets received from higher layer, vector(packetBytes)"
vector 263  scenario2M.host[8].wlan.mac  sentDownPk:vector(packetBytes)  ETV
attr interpolationmode  none
attr source  packetSentToLower
attr title  "packets sent to lower layer, vector(packetBytes)"
vector 268  scenario2M.host[8].wlan.radio  transmissionState:vector  ETV
attr interpolationmode  sample-hold
attr source  transmissionStateChanged
attr title  "Radio transmission state, vector"
vector 265  scenario2M.host[8].wlan.mac  rcvdPkFromLL:vector(packetBytes)  ETV
attr interpolationmode  none
attr source  packetReceivedFromLower
attr title  "packets received from lower layer, vector(packetBytes)"
vector 262  scenario2M.host[8].wlan.mac  passedUpPk:vector(packetBytes)  ETV
attr interpolationmode  none
attr source  packetSentToUpper
attr title  "packets passed to higher layer, vector(packetBytes)"
vector 259  scenario2M.host[8].networkLayer.arp  sentReply:vector  ETV
attr title  "ARP replies sent, vector"
vector 278  scenario2M.host[8].wlan.mac  "Mac delay AC0"  ETV
vector 223  scenario2M.host[7].udp  rcvdPk:vector(packetBytes)  ETV
attr interpolationmode  none
attr source  rcvdPk
attr title  "packets received, vector(packetBytes)"
vector 224  scenario2M.host[7].udp  passedUpPk:vector(count)  ETV
attr interpolationmode  none
attr title  "packets passed up, vector(count)"
vector 218  scenario2M.host[7].app  rcvdPk:vector(packetBytes)  ETV
attr interpolationmode  none
attr source  rcvdPk
attr title  "packets received, vector(packetBytes)"
vector 221  scenario2M.host[7].app  endToEndDelay:vector  ETV
attr interpolationmode  none
attr source  messageAge(rcvdPk)
attr title  "delay, vector"
attr unit  s
vector 291  scenario2M.host[9].wlan.mgmt  dataQueueLen:vector  ETV
attr interpolationmode  sample-hold
attr title  "data queue length, vector"
vector 297  scenario2M.host[9].wlan.radio  radioMode:vector  ETV
attr interpolationmode  sample-hold
attr source  radioModeChanged
attr title  "Radio mode, vector"
vector 300  scenario2M.host[9].wlan.radio  radioChannel:vector  ETV
attr interpolationmode  sample-hold
attr source  radioChannelChanged
attr title  "Radio channel, vector"
vector 298  scenario2M.host[9].wlan.radio  receptionState:vector  ETV
attr interpolationmode  sample-hold
attr source  receptionStateChanged
attr title  "Radio reception state, vector"
vector 306  scenario2M.host[9].wlan.mac  State  ETV
attr enum  "BACKOFF=3, DEFER=1, IDLE=0, RECEIVE=8, WAITACK=4, WAITAIFS=2, WAITCTS=6, WAITMULTICAST=5, WAITSIFS=7"
attr enumname  inet::Ieee80211Mac
vector 308  scenario2M.host[9].wlan.mac  "throughput AC0"  ETV
vector 242  scenario2M.host[7].mobility  acceleration  ETV
vector 243  scenario2M.host[7].mobility  co2emission  ETV
vector 270  scenario2M.host[8].mobility  posx  ETV
vector 271  scenario2M.host[8].mobility  posy  ETV
vector 272  scenario2M.host[8].mobility  speed  ETV
vector 279  scenario2M.host[9].app  sentPk:vector(packetBytes)  ETV
attr interpolationmode  none
attr source  sentPk
attr title  "packets sent, vector(packetBytes)"
vector 284  scenario2M.host[9].udp  sentPk:vector(packetBytes)  ETV
attr interpolationmode  none
attr source  sentPk
attr title  "packets sent, vector(packetBytes)"
vector 296  scenario2M.host[9].wlan.mac  rcvdPkFromLL:vector(packetBytes)  ETV
attr interpolationmode  none
attr source  packetReceivedFromLower
attr title  "packets received from lower layer, vector(packetBytes)"